
     Program PWSCF v.7.3.1 starts on 28Aug2025 at 13:49: 4 

     This program is part of the open-source Quantum ESPRESSO suite
     for quantum simulation of materials; please cite
         "P. Giannozzi et al., J. Phys.:Condens. Matter 21 395502 (2009);
         "P. Giannozzi et al., J. Phys.:Condens. Matter 29 465901 (2017);
         "P. Giannozzi et al., J. Chem. Phys. 152 154105 (2020);
          URL http://www.quantum-espresso.org", 
     in publications or presentations arising from this work. More details at
     http://www.quantum-espresso.org/quote

     Parallel version (MPI), running on    64 processors

     MPI processes distributed on     1 nodes
     123351 MiB available memory on the printing compute node when the environment starts
 
     Reading input from NO.scf.in
Warning: card &CELL ignored
Warning: card    CELL_DOFREE      = 'IBRAV' ignored
Warning: card / ignored

     Current dimensions of program PWSCF are:
     Max number of different atomic species (ntypx) = 10
     Max number of k-points (npk) =  40000
     Max angular momentum in pseudopotentials (lmaxx) =  4
     file N.pbe-n-kjpaw_psl.1.0.0.UPF: wavefunction(s)  2S renormalized
     file O.pbe-n-kjpaw_psl.1.0.0.UPF: wavefunction(s)  2S 2P renormalized
 
     R & G space division:  proc/nbgrp/npool/nimage =      64
     Subspace diagonalization in iterative solution of the eigenvalue problem:
     a serial algorithm will be used

 
     Parallelization info
     --------------------
     sticks:   dense  smooth     PW     G-vecs:    dense   smooth      PW
     Min         599     239     59                88335    22335    2791
     Max         600     240     60                88340    22342    2798
     Sum       38393   15329   3833              5653693  1429635  178925
 
     Using Slab Decomposition
 


     bravais-lattice index     =            8
     lattice parameter (alat)  =      28.3459  a.u.
     unit-cell volume          =   22775.6289 (a.u.)^3
     number of atoms/cell      =            2
     number of atomic types    =            2
     number of electrons       =        11.00
     number of Kohn-Sham states=           10
     kinetic-energy cutoff     =      60.0000  Ry
     charge density cutoff     =     600.0000  Ry
     scf convergence threshold =      1.0E-06
     mixing beta               =       0.4000
     number of iterations used =            8  plain     mixing
     Exchange-correlation= SLA  PW   PBX  PBC
                           (   1   4   3   4   0   0   0)

     celldm(1)=  28.345892  celldm(2)=   1.000000  celldm(3)=   1.000000
     celldm(4)=   0.000000  celldm(5)=   0.000000  celldm(6)=   0.000000

     crystal axes: (cart. coord. in units of alat)
               a(1) = (   1.000000   0.000000   0.000000 )  
               a(2) = (   0.000000   1.000000   0.000000 )  
               a(3) = (   0.000000   0.000000   1.000000 )  

     reciprocal axes: (cart. coord. in units 2 pi/alat)
               b(1) = (  1.000000  0.000000  0.000000 )  
               b(2) = (  0.000000  1.000000  0.000000 )  
               b(3) = (  0.000000  0.000000  1.000000 )  


     PseudoPot. # 1 for N  read from file:
     ../../../PPs/N.pbe-n-kjpaw_psl.1.0.0.UPF
     MD5 check sum: c6e79bdaf82e9b7606f7c0148f645edb
     Pseudo is Projector augmented-wave + core cor, Zval =  5.0
     Generated using 'atomic' code by A. Dal Corso  v.6.7MaX
     Shape of augmentation charge: PSQ
     Using radial grid of 1085 points,  4 beta functions with: 
                l(1) =   0
                l(2) =   0
                l(3) =   1
                l(4) =   1
     Q(r) pseudized with 0 coefficients 


     PseudoPot. # 2 for O  read from file:
     ../../../PPs/O.pbe-n-kjpaw_psl.1.0.0.UPF
     MD5 check sum: 3f49b924ca36f9822e82fb91e666968a
     Pseudo is Projector augmented-wave + core cor, Zval =  6.0
     Generated using 'atomic' code by A. Dal Corso  v.6.7MaX
     Shape of augmentation charge: PSQ
     Using radial grid of 1095 points,  4 beta functions with: 
                l(1) =   0
                l(2) =   0
                l(3) =   1
                l(4) =   1
     Q(r) pseudized with 0 coefficients 


     atomic species   valence    mass     pseudopotential
     N                 5.00    14.00674     N ( 1.00)
     O1                6.00    15.99940     O ( 1.00)

     Starting magnetic structure 
     atomic species   magnetization
     N               0.200
     O1              0.200

     No symmetry found



   Cartesian axes

     site n.     atom                  positions (alat units)
         1        N      tau(   1) = (   0.5000026   0.4999974   0.4611118  )
         2        O1     tau(   2) = (   0.4999974   0.5000026   0.5388882  )

     --------------------------------------------
     DFT-D3 Dispersion Correction (3-body terms):
     --------------------------------------------
       Reference C6 values for interpolation: 

         atom   Coordination number   C6
         N          0.000            50.54
         N          0.994            44.25
         N          2.014            39.35
         N          2.990            31.16
         O1         0.000            31.01
         O1         0.993            25.63
         O1         1.989            20.74

       Values used:

         atom   Coordination number  R0_AB[au]  C6      C8
         N          1.000            2.478     44.27    976.74
         O1         1.000            2.345     25.62    517.02

         Molecular C6 ( Ry / a.u.^6 ) =       136.61


     number of k points=     1  Gaussian smearing, width (Ry)=  0.0100
                       cart. coord. in units 2pi/alat
        k(    1) = (   0.0000000   0.0000000   0.0000000), wk =   1.0000000

     Dense  grid:  5653693 G-vectors     FFT dimensions: ( 225, 225, 225)

     Smooth grid:  1429635 G-vectors     FFT dimensions: ( 144, 144, 144)

     Estimated max dynamical RAM per process >     151.26 MB

     Estimated total dynamical RAM >       9.45 GB
     Generating pointlists ...
     new r_m :   0.0321 (alat units)  0.9094 (a.u.) for type    1
     new r_m :   0.0321 (alat units)  0.9094 (a.u.) for type    2

     Initial potential from superposition of free atoms

     starting charge      11.0000, renormalised to      11.0000

     negative rho (up, down):  2.883E-04 1.922E-04
     Starting wfcs are    8 randomized atomic wfcs +    2 random wfcs
     Checking if some PAW data can be deallocated... 

     total cpu time spent up to now is        6.1 secs

     Self-consistent Calculation

     iteration #  1     ecut=    60.00 Ry     beta= 0.40
     Davidson diagonalization with overlap
     ethr =  1.00E-02,  avg # of iterations =  6.0

     Threshold (ethr) on eigenvalues was too large:
     Diagonalizing with lowered threshold

     Davidson diagonalization with overlap
     ethr =  7.62E-04,  avg # of iterations =  2.5

     negative rho (up, down):  3.421E-04 2.405E-04

     total cpu time spent up to now is       10.4 secs

     total energy              =     -69.65285778 Ry
     estimated scf accuracy    <       0.07737066 Ry

     total magnetization       =     1.00 Bohr mag/cell
     absolute magnetization    =     1.02 Bohr mag/cell

     iteration #  2     ecut=    60.00 Ry     beta= 0.40
     Davidson diagonalization with overlap
     ethr =  7.03E-04,  avg # of iterations =  3.5

     negative rho (up, down):  3.919E-04 3.036E-04

     total cpu time spent up to now is       13.2 secs

     total energy              =     -69.66096762 Ry
     estimated scf accuracy    <       0.01763582 Ry

     total magnetization       =     1.00 Bohr mag/cell
     absolute magnetization    =     1.02 Bohr mag/cell

     iteration #  3     ecut=    60.00 Ry     beta= 0.40
     Davidson diagonalization with overlap
     ethr =  1.60E-04,  avg # of iterations =  5.0

     negative rho (up, down):  3.956E-04 3.089E-04

     total cpu time spent up to now is       16.2 secs

     total energy              =     -69.66616261 Ry
     estimated scf accuracy    <       0.00404881 Ry

     total magnetization       =     1.00 Bohr mag/cell
     absolute magnetization    =     1.02 Bohr mag/cell

     iteration #  4     ecut=    60.00 Ry     beta= 0.40
     Davidson diagonalization with overlap
     ethr =  3.68E-05,  avg # of iterations =  9.5

     negative rho (up, down):  4.065E-04 3.420E-04

     total cpu time spent up to now is       19.4 secs

     total energy              =     -69.66748320 Ry
     estimated scf accuracy    <       0.00120041 Ry

     total magnetization       =     1.00 Bohr mag/cell
     absolute magnetization    =     1.02 Bohr mag/cell

     iteration #  5     ecut=    60.00 Ry     beta= 0.40
     Davidson diagonalization with overlap
     ethr =  1.09E-05,  avg # of iterations =  3.5

     negative rho (up, down):  4.010E-04 3.363E-04

     total cpu time spent up to now is       22.4 secs

     total energy              =     -69.66774732 Ry
     estimated scf accuracy    <       0.00059460 Ry

     total magnetization       =     1.00 Bohr mag/cell
     absolute magnetization    =     1.02 Bohr mag/cell

     iteration #  6     ecut=    60.00 Ry     beta= 0.40
     Davidson diagonalization with overlap
     ethr =  5.41E-06,  avg # of iterations =  3.0

     negative rho (up, down):  4.004E-04 3.391E-04

     total cpu time spent up to now is       25.3 secs

     total energy              =     -69.66792901 Ry
     estimated scf accuracy    <       0.00005469 Ry

     total magnetization       =     1.00 Bohr mag/cell
     absolute magnetization    =     1.02 Bohr mag/cell

     iteration #  7     ecut=    60.00 Ry     beta= 0.40
     Davidson diagonalization with overlap
     ethr =  4.97E-07,  avg # of iterations = 13.5

     negative rho (up, down):  3.988E-04 3.384E-04

     total cpu time spent up to now is       28.7 secs

     total energy              =     -69.66797177 Ry
     estimated scf accuracy    <       0.00002983 Ry

     total magnetization       =     1.00 Bohr mag/cell
     absolute magnetization    =     1.02 Bohr mag/cell

     iteration #  8     ecut=    60.00 Ry     beta= 0.40
     Davidson diagonalization with overlap
     ethr =  2.71E-07,  avg # of iterations =  2.0

     negative rho (up, down):  3.992E-04 3.400E-04

     total cpu time spent up to now is       31.5 secs

     total energy              =     -69.66797295 Ry
     estimated scf accuracy    <       0.00000718 Ry

     total magnetization       =     1.00 Bohr mag/cell
     absolute magnetization    =     1.02 Bohr mag/cell

     iteration #  9     ecut=    60.00 Ry     beta= 0.40
     Davidson diagonalization with overlap
     ethr =  6.53E-08,  avg # of iterations =  3.0

     negative rho (up, down):  3.990E-04 3.401E-04

     total cpu time spent up to now is       34.2 secs

     total energy              =     -69.66798181 Ry
     estimated scf accuracy    <       0.00000485 Ry

     total magnetization       =     1.00 Bohr mag/cell
     absolute magnetization    =     1.02 Bohr mag/cell

     iteration # 10     ecut=    60.00 Ry     beta= 0.40
     Davidson diagonalization with overlap
     ethr =  4.41E-08,  avg # of iterations =  1.5

     negative rho (up, down):  3.992E-04 3.402E-04

     total cpu time spent up to now is       36.9 secs

     total energy              =     -69.66798071 Ry
     estimated scf accuracy    <       0.00000303 Ry

     total magnetization       =     1.00 Bohr mag/cell
     absolute magnetization    =     1.02 Bohr mag/cell

     iteration # 11     ecut=    60.00 Ry     beta= 0.40
     Davidson diagonalization with overlap
     ethr =  2.75E-08,  avg # of iterations =  2.5

     negative rho (up, down):  3.996E-04 3.409E-04
 
     Magnetic moment per site  (integrated on atomic sphere of radius R)
     atom   1 (R=0.032)  charge=  1.7552  magn=  0.2649
     atom   2 (R=0.032)  charge=  2.7822  magn=  0.1738

     total cpu time spent up to now is       39.6 secs

     End of self-consistent calculation

 ------ SPIN UP ------------


          k = 0.0000 0.0000 0.0000 (178925 PWs)   bands (ev):

   -31.2870 -16.9792 -12.7690 -12.7688 -11.6908  -4.5545  -4.5533  -0.3522
     0.1989   0.3245

 ------ SPIN DOWN ----------


          k = 0.0000 0.0000 0.0000 (178925 PWs)   bands (ev):

   -30.8163 -16.1814 -11.9497 -11.9448 -11.1197  -3.3346  -3.3289  -0.2959
     0.2612   0.3858

     the Fermi energy is    -4.5539 ev

!    total energy              =     -69.66798084 Ry
     total all-electron energy =      -259.813669 Ry
     estimated scf accuracy    <       0.00000029 Ry
     smearing contrib. (-TS)   =      -0.00564179 Ry
     internal energy E=F+TS    =     -69.66233906 Ry

     The total energy is F=E-TS. E is the sum of the following terms:
     one-electron contribution =    -112.18679228 Ry
     hartree contribution      =      57.75122807 Ry
     xc contribution           =     -12.76459496 Ry
     ewald contribution        =      15.13079061 Ry
     DFT-D3 Dispersion         =      -0.00000206 Ry
     one-center paw contrib.   =     -17.59296843 Ry

     total magnetization       =     1.00 Bohr mag/cell
     absolute magnetization    =     1.02 Bohr mag/cell

     convergence has been achieved in  11 iterations

     negative rho (up, down):  3.996E-04 3.409E-04

     Forces acting on atoms (cartesian axes, Ry/au):

     atom    1 type  1   force =     0.00000164    0.00000010    0.00110729
     atom    2 type  2   force =    -0.00000164   -0.00000010   -0.00110729

     Total force =     0.001566     Total SCF correction =     0.000736
     SCF correction compared to forces is large: reduce conv_thr to get better values

     Writing all to output data dir ./scf-NO/scf-NO.save/ :
     XML data file, charge density, pseudopotentials, collected wavefunctions
 
     init_run     :      5.31s CPU      5.87s WALL (       1 calls)
     electrons    :     29.51s CPU     34.05s WALL (       1 calls)
     forces       :      1.10s CPU      1.28s WALL (       1 calls)
     force_dftd3  :      0.00s CPU      0.00s WALL (       1 calls)

     Called by init_run:
     wfcinit      :      0.12s CPU      0.19s WALL (       1 calls)
     potinit      :      0.61s CPU      0.72s WALL (       1 calls)
     hinit0       :      0.58s CPU      0.66s WALL (       1 calls)

     Called by electrons:
     c_bands      :      6.05s CPU      6.10s WALL (      12 calls)
     sum_band     :      8.58s CPU     10.51s WALL (      12 calls)
     v_of_rho     :      8.01s CPU      8.38s WALL (      12 calls)
     newd         :      4.83s CPU      6.59s WALL (      12 calls)
     PAW_pot      :      0.40s CPU      0.52s WALL (      12 calls)
     mix_rho      :      1.30s CPU      1.34s WALL (      12 calls)
     energy_dftd3 :      0.00s CPU      0.00s WALL (       1 calls)

     Called by c_bands:
     init_us_2    :      0.06s CPU      0.07s WALL (      52 calls)
     cegterg      :      5.95s CPU      5.99s WALL (      24 calls)

     Called by *egterg:
     cdiaghg      :      0.02s CPU      0.06s WALL (     133 calls)
     h_psi        :      5.30s CPU      5.34s WALL (     137 calls)
     s_psi        :      0.06s CPU      0.06s WALL (     137 calls)
     g_psi        :      0.01s CPU      0.01s WALL (     111 calls)

     Called by h_psi:
     h_psi:calbec :      0.25s CPU      0.26s WALL (     137 calls)
     vloc_psi     :      4.93s CPU      4.96s WALL (     137 calls)
     add_vuspsi   :      0.10s CPU      0.10s WALL (     137 calls)

     General routines
     calbec       :      0.29s CPU      0.30s WALL (     169 calls)
     fft          :      7.64s CPU      8.14s WALL (     315 calls)
     ffts         :      0.28s CPU      0.30s WALL (      48 calls)
     fftw         :      3.88s CPU      3.90s WALL (    1772 calls)
     interpolate  :      0.71s CPU      0.75s WALL (      24 calls)
 
     Parallel routines
 
     PWSCF        :     36.25s CPU     42.40s WALL

 
   This run was terminated on:  13:49:47  28Aug2025            

=------------------------------------------------------------------------------=
   JOB DONE.
=------------------------------------------------------------------------------=
